LAMMPS data file via write_data, version 4 Nov 2016, timestep = 30000

2260 atoms
8 atom types
2336 bonds
9 bond types
4024 angles
14 angle types
5520 dihedrals
18 dihedral types
1936 impropers
10 improper types

0.0000000000000000e+00 6.1390900000000002e+01 xlo xhi
0.0000000000000000e+00 4.6025199999999998e+01 ylo yhi
6.8000000000000000e+01 1.8844600000000000e+02 zlo zhi

Masses

1 12.011
2 12.011
3 12.011
4 1.008
5 1.008
6 1.008
7 15.999
8 15.999

Pair Coeffs # lj/cut/coul/long

1 0.105 3.74997
2 0.07 3.54996
3 0.066 3.49998
4 0.03 2.42004
5 0.03 2.50004
6 0.03 2.50004
7 0.21 2.96001
8 0.17 3.00001

Bond Coeffs # harmonic

1 320 1.41
2 214 1.327
3 570 1.229
4 400 1.49
5 469 1.4
6 268 1.529
7 340 1.09
8 367 1.08
9 340 1.09

Angle Coeffs # harmonic

1 35 109.5
2 33 107.8
3 83 116.9
4 83 123.4
5 81 111.4
6 80 120.4
7 85 120
8 63 120
9 35 120
10 50 109.5
11 37.5 110.7
12 58.35 112.7
13 37.5 110.7
14 33 107.8

Dihedral Coeffs # opls

1 0 0 0.198 0
2 0 5 0 0
3 4 5 0 0
4 0 2.1 0 0
5 0 2.1 0 0
6 0 7.25 0 0
7 0 7.25 0 0
8 0 7.25 0 0
9 0 7.25 0 0
10 0 7.25 0 0
11 -1.22 -0.126 0.422 0
12 1.711 -0.5 0.663 0
13 0 0 0.468 0
14 0 0 0.3 0
15 0 0 0.3 0
16 1.3 -0.05 0.2 0
17 0 0 0.3 0
18 0 0 0.3 0

Improper Coeffs # class2

1 0 0
2 0 0
3 21 0
4 5 0
5 5 0
6 0 0
7 0 0
8 0 0
9 0 0
10 0 0

AngleAngle Coeffs

1 0 0 0 120 120 120
2 0 0 0 120 120 120
3 0 0 0 120 120 120
4 0 0 0 120 120 120
5 0 0 0 120 120 120
6 0 0 0 120 120 120
7 0 0 0 120 120 120
8 0 0 0 120 120 120
9 0 0 0 120 120 120
10 0 0 0 120 120 120

Atoms # full

531 1 4 1.1500000000000000e-01 1.5707212314772672e+01 2.0847135763465952e+00 8.9257271285944427e+01 0 0 0
1616 3 6 2.9999999999999999e-02 8.3206820323977251e+00 5.3083733430028757e-01 9.9246606881065404e+01 1 1 0
284 1 7 -4.2999999999999999e-01 1.7740262687394928e+01 9.4088820780048898e-01 8.8310628346377698e+01 0 0 0
1340 3 8 -3.3000000000000002e-01 1.1945598872418681e+00 2.6943948438522547e+00 9.5530406848512627e+01 0 1 0
527 1 6 2.9999999999999999e-02 1.0405151179602552e+01 2.6639054920417733e+00 9.1169540458993893e+01 0 0 0
273 1 3 1.9000000000000000e-01 1.0473267933167726e+01 1.8316722040423212e+00 9.1865701362999275e+01 0 0 0
524 1 5 5.9999999999999998e-02 1.1276615920711874e+01 4.2331615999086161e+00 9.3437224646276263e+01 0 1 0
271 1 3 -1.2000000000000000e-01 1.1646563212068852e+01 3.2477703876894877e+00 9.3750028367257826e+01 0 1 0
270 1 3 1.9000000000000000e-01 1.2078650725167241e+01 3.0020755662088794e+00 9.5198592352815837e+01 0 1 0
272 1 3 -1.2000000000000000e-01 1.0554607972955127e+01 2.1969236379346073e+00 9.3368978823018509e+01 0 1 0
525 1 5 5.9999999999999998e-02 9.5405374083895040e+00 2.5051743499842254e+00 9.3617559759792613e+01 0 1 0
526 1 5 5.9999999999999998e-02 1.0672240692400264e+01 1.2972890004733839e+00 9.4080701656050763e+01 0 1 0
1637 3 4 1.1500000000000000e-01 5.7349453095563403e+00 1.5935101297788004e+00 9.3432903542311806e+01 1 1 0
528 1 6 2.9999999999999999e-02 9.8830810677440208e+00 1.0113438584314738e+00 9.1663777342462978e+01 0 0 0
521 1 6 2.9999999999999999e-02 1.2886129529843807e+01 3.5682241697832073e+00 9.5640570233329484e+01 0 1 0
532 1 4 1.1500000000000000e-01 1.3915431609855363e+01 2.1925589502993654e+00 9.0523280865337370e+01 0 0 0
281 1 2 -1.1500000000000000e-01 1.5269830567136292e+01 1.1691095183462381e+00 8.9653796650235250e+01 0 0 0
487 1 5 5.9999999999999998e-02 3.2998944127645506e+00 2.3396204874244084e+00 9.9871249272439769e+01 0 1 0
282 1 2 -1.1500000000000000e-01 1.4154826452559474e+01 1.1684628362695215e+00 9.0342370307400230e+01 0 0 0
519 1 4 1.1500000000000000e-01 1.6011708885608314e+01 8.2259030783524756e-01 9.6979562219746811e+01 0 1 0
274 1 8 -3.3000000000000002e-01 1.1789999719334523e+01 1.3582875859597709e+00 9.1554242276087862e+01 0 0 0
523 1 5 5.9999999999999998e-02 1.2616174733858010e+01 3.2197975068119913e+00 9.3202766851614058e+01 0 1 0
269 1 8 -3.3000000000000002e-01 1.2570415251047265e+01 1.6923143401222911e+00 9.5244987628674366e+01 0 1 0
1609 3 6 2.9999999999999999e-02 1.4129261034895929e-01 3.9105526802836352e+00 9.4634422742353280e+01 0 1 0
486 1 6 2.9999999999999999e-02 2.0611586080668580e+00 4.8030851608194175e-01 9.9978034213448026e+01 0 1 0
1341 3 1 3.7500000000000000e-01 1.6141190801863146e+00 1.4839257662115317e+00 9.4925326145305831e+01 0 1 0
1380 3 2 -1.1500000000000000e-01 7.2732046229534850e+00 1.4716163286634507e-01 9.3551297368533554e+01 1 1 0
1613 3 4 1.1500000000000000e-01 5.6283910059433211e+00 2.7819397325338993e+00 9.6930472765744227e+01 0 1 0
1614 3 4 1.1500000000000000e-01 3.6414928150635824e+00 3.2677288718775914e+00 9.5790660029228391e+01 0 1 0
488 1 5 5.9999999999999998e-02 4.1247507813697650e+00 1.3848917201798974e+00 9.8716763117151658e+01 0 1 0
1349 3 1 3.7500000000000000e-01 6.7945995321357922e+00 2.4933449478671882e-01 9.7281563793758579e+01 0 1 0
1638 3 4 1.1500000000000000e-01 7.6371028501013285e+00 5.5173404330962605e-01 9.4482774682480226e+01 1 1 0
1352 3 3 1.9000000000000000e-01 8.6333045504250254e+00 1.1787501441109907e+00 9.8334188902825090e+01 1 1 0
1346 3 2 1.3500000000000001e-01 5.5233053429273502e+00 6.4074045750296993e-01 9.6539492429786108e+01 0 1 0
1640 3 6 2.9999999999999999e-02 2.3094814141853726e+00 1.1016285735946867e+00 8.9430957883222320e+01 1 1 0
1347 3 2 -1.1500000000000000e-01 5.1249212722693169e+00 1.9482032975577830e+00 9.6422504999278374e+01 0 1 0
1353 3 3 -1.2000000000000000e-01 9.0419590721895009e+00 2.5515855861741050e+00 9.8804733405838576e+01 1 1 0
1381 3 1 3.7500000000000000e-01 4.1073553884762459e+00 5.7372375586849977e-01 9.1219625473505047e+01 1 1 0
268 1 7 -4.2999999999999999e-01 1.3635314356370511e+01 1.9116995036961248e+00 9.7280764536788752e+01 0 1 0
1617 3 5 5.9999999999999998e-02 8.1892536725740825e+00 3.0988559411270349e+00 9.9298126172879407e+01 1 1 0
522 1 6 2.9999999999999999e-02 1.1318716259131763e+01 3.1463042148091507e+00 9.5944719473528195e+01 0 1 0
1354 3 3 -1.2000000000000000e-01 1.0082813817659687e+01 2.6161369542305595e+00 9.9941679558147428e+01 1 1 0
1382 3 7 -4.2999999999999999e-01 3.7868751805109784e+00 1.7336834990496672e+00 9.1393627011650480e+01 1 1 0
1618 3 5 5.9999999999999998e-02 9.4883499724865921e+00 3.0765820877399639e+00 9.7972414039330744e+01 0 1 0
1620 3 5 5.9999999999999998e-02 1.1106286557453721e+01 2.5123836642577801e+00 9.9548460070359582e+01 1 1 0
1342 3 7 -4.2999999999999999e-01 1.0391578042238605e+00 7.9639420534349636e-01 9.4055142891759161e+01 0 1 0
267 1 1 3.7500000000000000e-01 1.3393715985176293e+01 1.3137684955083981e+00 9.6189004604634974e+01 0 1 0
1379 3 2 -1.1500000000000000e-01 6.0468031103770992e+00 6.5905554329637095e-01 9.2995865219378686e+01 1 1 0
264 1 2 1.3500000000000001e-01 1.4243355831992560e+01 1.3742550417732341e-01 9.5723965620357689e+01 0 1 0
223 1 3 -1.2000000000000000e-01 3.9242812801059270e+00 1.4533954401620803e+00 9.9855121283558901e+01 0 1 0
1348 3 2 -1.1500000000000000e-01 3.9068011548088837e+00 2.2387510688798313e+00 9.5845853029034018e+01 0 1 0
1351 3 8 -3.3000000000000002e-01 7.5707135135545629e+00 1.2517229878414002e+00 9.7384018909078009e+01 1 1 0
1615 3 6 2.9999999999999999e-02 9.5199173837155655e+00 7.3095922214558184e-01 9.7851686439225659e+01 0 1 0
1343 3 2 1.3500000000000001e-01 3.0311326259157036e+00 1.2181064077159005e+00 9.5357215269091370e+01 0 1 0
275 1 1 3.7500000000000000e-01 1.2145870576346963e+01 6.8441880411504841e-02 9.1418889833854905e+01 0 0 0
265 1 2 -1.1500000000000000e-01 1.5544656188751224e+01 7.0313799339443664e-02 9.6321322926989353e+01 0 1 0
1606 3 5 5.9999999999999998e-02 4.8953396657877263e-02 1.7683601084165421e+00 9.7689999657930713e+01 1 1 0
1607 3 5 5.9999999999999998e-02 2.6589590068136959e-01 4.2142852543654552e+00 9.7111021338284289e+01 1 1 0
283 1 1 3.7500000000000000e-01 1.6917628891253916e+01 1.8920023090771565e-03 8.8300195169791607e+01 0 0 0
1938 4 1 3.7500000000000000e-01 4.2958056874424937e+00 4.3936695550296267e+00 1.0627727829910853e+02 0 0 0
502 1 5 5.9999999999999998e-02 1.2465337654642468e+01 2.8985662622583758e-01 1.0898711734918700e+02 0 1 0
1937 4 8 -3.3000000000000002e-01 3.4067634904596558e+00 5.3828871499778419e+00 1.0636492470311948e+02 0 0 0
1934 4 3 -1.2000000000000000e-01 7.1966059237821300e-01 5.2713439048929578e+00 1.0548962038816788e+02 0 0 0
1931 4 7 -4.2999999999999999e-01 1.8031268903911965e-01 3.6286462366147307e+00 1.0802110669803133e+02 0 0 0
1017 2 5 5.9999999999999998e-02 1.6947591355970573e+00 1.5855637252621204e+00 1.2510919658902499e+02 0 1 0
1621 3 6 2.9999999999999999e-02 8.9009149576410440e+00 1.4265417660520763e+00 1.0142081764216229e+02 1 1 0
2193 4 6 2.9999999999999999e-02 1.6226084961957759e+00 3.3527962185814699e+00 1.0532995337989145e+02 0 0 0
1939 4 7 -4.2999999999999999e-01 5.1365177614024340e+00 4.2936489561387603e+00 1.0541463510863838e+02 0 0 0
1945 4 2 -1.1500000000000000e-01 4.6278635871662512e+00 2.0017905421672464e+00 1.0678797028758787e+02 0 0 0
2203 4 4 1.1500000000000000e-01 5.3823796945999591e+00 1.9984042484427127e+00 1.0600318105559958e+02 0 0 0
226 1 8 -3.3000000000000002e-01 6.0883123810611339e+00 2.6977548027251319e+00 1.0281952589201279e+02 0 1 0
492 1 6 2.9999999999999999e-02 4.3861084629687612e+00 3.4187520750932592e+00 1.0198330650101255e+02 0 1 0
491 1 6 2.9999999999999999e-02 4.2417141677696648e+00 1.9653549303888977e+00 1.0285428917978840e+02 0 1 0
225 1 3 1.9000000000000000e-01 4.8705062178784040e+00 2.4929643347170609e+00 1.0205478875732209e+02 0 1 0
228 1 7 -4.2999999999999999e-01 6.3871875936212819e+00 5.0199826680237107e+00 1.0259879892312603e+02 0 1 0
1014 2 6 2.9999999999999999e-02 1.0990329421792211e+00 4.0879164197349995e+00 1.2446015278417124e+02 0 1 0
227 1 1 3.7500000000000000e-01 6.7774729802303666e+00 3.9360483398418560e+00 1.0290449425578076e+02 0 1 0
235 1 1 3.7500000000000000e-01 1.1707800853651268e+01 3.4367251697057410e+00 1.0600923324520971e+02 0 1 0
495 1 4 1.1500000000000000e-01 9.9455666230860214e+00 1.3805980960819517e+00 1.0513017851870171e+02 0 1 0
232 1 2 1.3500000000000001e-01 1.0434568356018696e+01 3.4382270237549140e+00 1.0521307072277015e+02 0 1 0
233 1 2 -1.1500000000000000e-01 9.7333241014814291e+00 2.3499470587148625e+00 1.0485661525209504e+02 0 1 0
490 1 5 5.9999999999999998e-02 5.5999429720733538e+00 7.6420081619971714e-01 1.0062797710332674e+02 0 1 0
237 1 8 -3.3000000000000002e-01 1.2243554839127507e+01 2.2747027946282374e+00 1.0618992180362552e+02 0 1 0
485 1 6 2.9999999999999999e-02 2.8977982839006740e+00 6.4608131053007190e-01 1.0158642606759001e+02 0 1 0
236 1 7 -4.2999999999999999e-01 1.2159417053544775e+01 4.4917092073295288e+00 1.0651911518214041e+02 0 1 0
229 1 2 1.3500000000000001e-01 8.1398367881464981e+00 3.7086769977870331e+00 1.0354888399550040e+02 0 1 0
494 1 4 1.1500000000000000e-01 1.0383224958855751e+01 5.6337785552362849e+00 1.0530487889394546e+02 0 1 0
231 1 2 -1.1500000000000000e-01 9.8939646604286828e+00 4.6823941125956798e+00 1.0485711870041061e+02 0 1 0
230 1 2 -1.1500000000000000e-01 8.8723013894520300e+00 4.8253146514385747e+00 1.0390891155557588e+02 0 1 0
496 1 4 1.1500000000000000e-01 8.0885424357064419e+00 1.4958656020245251e+00 1.0386516070134982e+02 0 1 0
234 1 2 -1.1500000000000000e-01 8.5697974689161445e+00 2.4616356664314449e+00 1.0407548232128457e+02 0 1 0
493 1 4 1.1500000000000000e-01 8.6668096197395315e+00 5.8177074036529532e+00 1.0358510857178904e+02 0 1 0
1356 3 8 -3.3000000000000002e-01 1.0547509194219476e+01 4.4872401901861630e-01 1.0050391613526112e+02 1 1 0
239 1 3 -1.2000000000000000e-01 1.3699991377377915e+01 6.5611716536712672e-01 1.0731051881154244e+02 0 1 0
499 1 5 5.9999999999999998e-02 1.4737826445119598e+01 7.5186282142714644e-01 1.0774140127232808e+02 0 1 0
238 1 3 1.9000000000000000e-01 1.3178797212824476e+01 2.0972773363364352e+00 1.0728068673260422e+02 0 1 0
497 1 6 2.9999999999999999e-02 1.2831859020481517e+01 2.5482733863141247e+00 1.0813004061503283e+02 0 1 0
1619 3 5 5.9999999999999998e-02 1.0113016415920496e+01 3.6381430980049734e+00 1.0040494272599942e+02 1 1 0
498 1 6 2.9999999999999999e-02 1.4044635555840726e+01 2.6313953473921905e+00 1.0710438920849042e+02 0 1 0
500 1 5 5.9999999999999998e-02 1.3848327181602167e+01 2.7023685495594202e-01 1.0630635854688219e+02 0 1 0
1936 4 3 1.9000000000000000e-01 3.0904573430136524e+00 6.4255577027299449e+00 1.0543356186718789e+02 0 0 0
1935 4 3 -1.2000000000000000e-01 1.7318191687506170e+00 6.0147181646297785e+00 1.0467947833887682e+02 0 0 0
2197 4 5 5.9999999999999998e-02 1.7574860068072806e+00 5.4210491962930272e+00 1.0374186439011132e+02 0 0 0
2198 4 6 2.9999999999999999e-02 2.8675181989715810e+00 7.1959349003293962e+00 1.0610611306869454e+02 0 0 0
2196 4 5 5.9999999999999998e-02 1.1402606832042943e+00 6.9538695632665108e+00 1.0438060343297734e+02 0 0 0
2199 4 6 2.9999999999999999e-02 3.9127826187945551e+00 6.7008499745506320e+00 1.0481746721043507e+02 0 0 0
1941 4 2 -1.1500000000000000e-01 3.2806445188460489e+00 3.4215434860466685e+00 1.0830824349354839e+02 0 0 0
1940 4 2 1.3500000000000001e-01 4.0561899381722162e+00 3.2157129162635574e+00 1.0721218629101523e+02 0 0 0
2200 4 4 1.1500000000000000e-01 2.9883113147111762e+00 4.3548283109191566e+00 1.0858260620987670e+02 0 0 0
1942 4 2 -1.1500000000000000e-01 3.0225385011130546e+00 2.3009867708603986e+00 1.0900313857118540e+02 0 0 0
2192 4 6 2.9999999999999999e-02 2.8545481585911853e-01 3.6592548204958928e+00 1.0397386359495403e+02 0 0 0
1944 4 2 -1.1500000000000000e-01 4.3111078701129184e+00 8.7642194778096605e-01 1.0749081136056489e+02 0 0 0
2201 4 4 1.1500000000000000e-01 2.2884678430737697e+00 2.4504466103216789e+00 1.0982403502524302e+02 0 0 0
1943 4 2 1.3500000000000001e-01 3.3876948095880426e+00 1.0979876108537536e+00 1.0853639547837896e+02 0 0 0
2194 4 5 5.9999999999999998e-02 8.3176603484661771e-01 5.4183878884741699e+00 1.0660018482694262e+02 0 0 0
1893 4 2 -1.1500000000000000e-01 1.3680405538983003e+00 8.5426860307068264e-01 1.1963245741724060e+02 0 0 0
224 1 3 -1.2000000000000000e-01 5.1262596786043240e+00 1.6898782521604920e+00 1.0069648411511552e+02 0 1 0
1933 4 3 1.9000000000000000e-01 6.8965385908359489e-01 3.7754447394506183e+00 1.0505383357370523e+02 0 0 0
2178 4 4 1.1500000000000000e-01 2.4108493336475383e+00 7.2807862943852897e-01 1.1375941044703245e+02 0 0 0
1355 3 3 1.9000000000000000e-01 1.0031781190832229e+01 1.6114285656646450e+00 1.0109732738050732e+02 1 1 0
1622 3 6 2.9999999999999999e-02 1.0756076026196899e+01 1.8682259440412021e+00 1.0193482409290017e+02 1 1 0
1892 4 2 1.3500000000000001e-01 2.7537591018945445e-01 1.4418341989497219e+00 1.1901930264667885e+02 0 0 0
2164 4 4 1.1500000000000000e-01 1.5338769423456695e+00 1.0788739421913316e+00 1.2066860795751103e+02 0 0 0
489 1 5 5.9999999999999998e-02 5.8026801157184309e+00 2.2874150287411146e+00 1.0018892556799992e+02 0 1 0
222 1 3 1.9000000000000000e-01 3.0268965117079469e+00 4.3146646549877921e-01 1.0052902460554020e+02 0 1 0
2189 4 4 1.1500000000000000e-01 1.2799957779666138e-02 1.6766183485799524e+00 1.0927287381462226e+02 0 0 0
1915 4 7 -4.2999999999999999e-01 6.3056685044840799e-02 2.2757947431311032e-01 1.1293912515089025e+02 0 0 0
1018 2 5 5.9999999999999998e-02 9.6881098971721522e-02 2.1559629877822344e+00 1.2317688206121765e+02 0 1 0
2202 4 4 1.1500000000000000e-01 4.7771891861087781e+00 2.9074472492786753e-02 1.0731671893584371e+02 0 0 0
738 2 8 -3.3000000000000002e-01 1.4544515413624088e+00 3.8019853568772333e+00 1.2657262243511548e+02 0 1 0
733 2 2 1.3500000000000001e-01 3.1043777864326962e+00 4.0465843638023413e+00 1.2819542721472973e+02 0 1 0
731 2 2 -1.1500000000000000e-01 4.4064611875947932e+00 3.6505161398183930e+00 1.3022421745456560e+02 0 1 0
730 2 2 1.3500000000000001e-01 3.4278830165996514e+00 4.2426179331419398e+00 1.3104313249846805e+02 0 1 0
736 2 1 3.7500000000000000e-01 2.7769588555175213e+00 3.7501670982760418e+00 1.2673910803557193e+02 0 1 0
732 2 2 -1.1500000000000000e-01 4.2474753295410785e+00 3.6420947434702597e+00 1.2875419177199780e+02 0 1 0
734 2 2 -1.1500000000000000e-01 2.0932588974766748e+00 4.6064942513819531e+00 1.2904059200308743e+02 0 1 0
735 2 2 -1.1500000000000000e-01 2.2572502927410185e+00 4.6326251286873905e+00 1.3042512705157267e+02 0 1 0
1013 2 4 1.1500000000000000e-01 1.4589325980401753e+00 5.1611383032291211e+00 1.3097453939411125e+02 0 1 0
737 2 7 -4.2999999999999999e-01 3.6959545571564818e+00 3.4398275908714404e+00 1.2593802896769924e+02 0 1 0
1012 2 4 1.1500000000000000e-01 1.1750472318911478e+00 5.0335713867761722e+00 1.2867326682225718e+02 0 1 0
1011 2 4 1.1500000000000000e-01 4.9996112426016213e+00 3.3013616579966532e+00 1.2808504880351495e+02 0 1 0
1007 2 5 5.9999999999999998e-02 5.2070320898687887e+00 5.0251861827685316e+00 1.3510805058510471e+02 0 1 0
728 2 1 3.7500000000000000e-01 3.7046801649848797e+00 4.5133956389954273e+00 1.3243313258927469e+02 0 1 0
727 2 8 -3.3000000000000002e-01 4.2753282949821676e+00 3.3420364577795647e+00 1.3297271323625043e+02 0 1 0
1858 4 1 3.7500000000000000e-01 8.0300860531937945e-01 4.0710268815336006e+00 1.3741899835131545e+02 0 0 0
1859 4 7 -4.2999999999999999e-01 1.4674013138399602e+00 3.0371484658154477e+00 1.3774204190572658e+02 0 0 0
1008 2 6 2.9999999999999999e-02 3.1280276407808487e+00 3.3866070680980216e+00 1.3457211906371293e+02 0 1 0
725 2 3 -1.2000000000000000e-01 5.0992809938811217e+00 3.8875818290994744e+00 1.3533501532837914e+02 0 1 0
726 2 3 1.9000000000000000e-01 4.1582465762206224e+00 3.1321898754589386e+00 1.3436460680127158e+02 0 1 0
2127 4 6 2.9999999999999999e-02 1.6576413878924414e+00 1.2903929464190560e+01 1.4977492597315702e+02 0 0 0
1005 2 5 5.9999999999999998e-02 5.5026527866619173e+00 2.7241429341792713e+00 1.3721885497659346e+02 0 1 0
729 2 7 -4.2999999999999999e-01 3.4694201349293943e+00 5.6407084798346299e+00 1.3292736394969779e+02 0 1 0
1010 2 4 1.1500000000000000e-01 5.3431247454796438e+00 3.4294822864754124e+00 1.3079008895350853e+02 0 1 0
1009 2 6 2.9999999999999999e-02 4.3222371889451017e+00 2.1092856149137740e+00 1.3456981915555946e+02 0 1 0
992 2 5 5.9999999999999998e-02 4.5711269326713113e+00 8.7265503470388694e-01 1.4959301255656356e+02 0 1 0
739 2 3 1.9000000000000000e-01 7.6780300170953908e-01 3.5011589763569901e+00 1.2536072245399539e+02 0 1 0
1006 2 5 5.9999999999999998e-02 6.0968406339997339e+00 3.4632607592548688e+00 1.3507210955605387e+02 0 1 0
1004 2 5 5.9999999999999998e-02 3.8258693890054749e+00 3.3103336468913058e+00 1.3701188571630627e+02 0 1 0
724 2 3 -1.2000000000000000e-01 4.8939192064588735e+00 3.5471646662040528e+00 1.3674155309070537e+02 0 1 0
723 2 3 1.9000000000000000e-01 5.0997529426999471e+00 4.5307205012751197e+00 1.3791650795425988e+02 0 1 0
1003 2 6 2.9999999999999999e-02 4.1789472610803093e+00 5.0920701106634807e+00 1.3794650417320616e+02 0 1 0
1002 2 6 2.9999999999999999e-02 5.9111445204340791e+00 5.0760619854750884e+00 1.3775637486393066e+02 0 1 0
1857 4 8 -3.3000000000000002e-01 4.2488266628540261e-01 5.0587845230435740e+00 1.3817960278642093e+02 0 0 0
1856 4 3 1.9000000000000000e-01 6.7449038879959666e-01 4.9902223934178336e+00 1.3959387139580954e+02 0 0 0
1554 3 4 1.1500000000000000e-01 2.3473624066481524e+00 2.3612524059475866e+00 1.4118554648770012e+02 0 1 0
1544 3 6 2.9999999999999999e-02 1.6418991401754399e-01 5.7028486941121272e+00 1.4667043006316595e+02 0 1 0
1553 3 4 1.1500000000000000e-01 1.6914592311230523e+00 7.6024397091673745e-01 1.3941347758953449e+02 0 1 0
1268 3 2 -1.1500000000000000e-01 1.6799281626049258e+00 1.5228345452233272e+00 1.4135800748907232e+02 0 1 0
1263 3 2 1.3500000000000001e-01 1.3768775988798441e+00 1.2355304852937199e+00 1.4270330515188280e+02 0 1 0
1267 3 2 -1.1500000000000000e-01 1.3430104839454449e+00 5.3167492275513251e-01 1.4037267777917461e+02 0 1 0
714 2 2 1.3500000000000001e-01 5.3132040555474838e+00 1.5152590436476550e+00 1.4365791864419103e+02 0 1 0
2139 4 6 2.9999999999999999e-02 1.8038035346903987e+00 4.6966653796636910e+00 1.3974701256426050e+02 0 0 0
1261 3 1 3.7500000000000000e-01 1.7795193151196194e+00 2.2373527733600920e+00 1.4379578734197199e+02 0 1 0
1262 3 7 -4.2999999999999999e-01 2.1488224446212807e+00 3.3362668170690992e+00 1.4346542429020025e+02 0 1 0
715 2 2 -1.1500000000000000e-01 5.0337585452990741e+00 9.5907988579039305e-01 1.4238829707467036e+02 0 1 0
1540 3 4 1.1500000000000000e-01 8.2030756848019637e-01 4.4127374537808697e+00 1.5024034166241256e+02 0 1 0
999 2 4 1.1500000000000000e-01 4.6515453808833405e+00 1.4133780785145484e+00 1.4039367550087363e+02 0 1 0
716 2 2 -1.1500000000000000e-01 4.9940272452892591e+00 1.8713092915645628e+00 1.4130347129494231e+02 0 1 0
722 2 8 -3.3000000000000002e-01 5.0124160610294242e+00 3.7615499780758452e+00 1.3907929532924669e+02 0 1 0
721 2 7 -4.2999999999999999e-01 4.7378811559823468e+00 5.4954441997428125e+00 1.4065650809928994e+02 0 1 0
1001 2 4 1.1500000000000000e-01 5.6327331013596345e+00 3.3518278543238202e+00 1.4480770793776193e+02 0 1 0
720 2 1 3.7500000000000000e-01 4.9648968333233547e+00 4.3203883440304764e+00 1.4034080986195636e+02 0 1 0
717 2 2 1.3500000000000001e-01 5.1123981469415343e+00 3.2948014645450789e+00 1.4140994621616048e+02 0 1 0
718 2 2 -1.1500000000000000e-01 5.4381385053059201e+00 3.7409477822891057e+00 1.4273860636442930e+02 0 1 0
1000 2 4 1.1500000000000000e-01 5.6658336563739971e+00 4.8035306732221601e+00 1.4287481468713463e+02 0 1 0
719 2 2 -1.1500000000000000e-01 5.5260678858961896e+00 2.8969375136412232e+00 1.4381435519168912e+02 0 1 0
1838 4 3 -1.2000000000000000e-01 4.0436767632027468e+00 1.1731369516703747e+01 1.5028378146060214e+02 0 0 0
2132 4 6 2.9999999999999999e-02 2.2343855190271492e-01 9.2743018728468094e+00 1.3984202494280370e+02 0 0 0
2137 4 5 5.9999999999999998e-02 1.4296491782334368e+00 7.1026535342404369e+00 1.3954846194935294e+02 0 0 0
1855 4 3 -1.2000000000000000e-01 6.3937058328358520e-01 6.4476773014669657e+00 1.4006928084319540e+02 0 0 0
2136 4 5 5.9999999999999998e-02 8.6714806270133826e-01 6.3265578321465368e+00 1.4108463488584695e+02 0 0 0
2130 4 4 1.1500000000000000e-01 1.5723130562893168e+00 9.7240460344482571e+00 1.4360276776437701e+02 0 0 0
1848 4 2 -1.1500000000000000e-01 6.9317160826836677e-01 9.8679885515240429e+00 1.4418023428312137e+02 0 0 0
2120 4 6 2.9999999999999999e-02 2.6340629001654046e+00 1.0351602742674993e+01 1.4970017437740179e+02 0 0 0
1547 3 5 5.9999999999999998e-02 5.1135907034898287e-01 3.1952817350684493e+00 1.4671345229860705e+02 0 1 0
1546 3 5 5.9999999999999998e-02 1.6750279915107975e+00 5.0357346940984637e+00 1.4526543572730682e+02 0 1 0
1545 3 5 5.9999999999999998e-02 2.9457912731244349e+00 5.0911676758489071e+00 1.4637362808904700e+02 0 1 0
1837 4 3 1.9000000000000000e-01 3.7296329311769743e+00 1.0300599740526504e+01 1.4981649475287492e+02 0 0 0
2126 4 6 2.9999999999999999e-02 1.9454444595759277e+00 1.3802210558539132e+01 1.4831254676599679e+02 0 0 0
2125 4 5 5.9999999999999998e-02 4.1807955801731431e+00 1.3489452047795014e+01 1.4926249177033324e+02 0 0 0
1549 3 6 2.9999999999999999e-02 2.3068783326582847e+00 1.6208306996147384e+00 1.4686293099582969e+02 0 1 0
1548 3 5 5.9999999999999998e-02 1.6338663880215145e+00 3.4104283334770420e+00 1.4795039857669997e+02 0 1 0
1844 4 2 1.3500000000000001e-01 3.6531593815543099e-02 1.0963825912881724e+01 1.4636211462895065e+02 0 0 0
1258 3 3 -1.2000000000000000e-01 1.5609223522642044e+00 3.4340499121550696e+00 1.4685221244939257e+02 0 1 0
1550 3 6 2.9999999999999999e-02 3.5292310059714493e+00 2.5354076594121477e+00 1.4623812079960078e+02 0 1 0
1259 3 3 1.9000000000000000e-01 2.4615886956529534e+00 2.3656478870775035e+00 1.4611544924681593e+02 0 1 0
1260 3 8 -3.3000000000000002e-01 1.7751943592047992e+00 1.7228645263240518e+00 1.4506897315584257e+02 0 1 0
1257 3 3 -1.2000000000000000e-01 1.8737107735927503e+00 4.8116758509989603e+00 1.4629928521747746e+02 0 1 0
711 2 8 -3.3000000000000002e-01 5.6407802848247819e+00 1.0039091401874300e+00 1.4586738613755557e+02 0 1 0
712 2 1 3.7500000000000000e-01 5.0950040609257679e+00 5.4687948864105518e-01 1.4478349086659912e+02 0 1 0
709 2 3 -1.2000000000000000e-01 5.9546970698670663e+00 1.2649519417633646e+00 1.4829937894525136e+02 0 1 0
995 2 5 5.9999999999999998e-02 5.7245453149510697e+00 2.2444382514626011e+00 1.4803984780125279e+02 0 1 0
708 2 3 -1.2000000000000000e-01 5.6529726542542207e+00 6.8114908614805914e-01 1.4964134160957468e+02 0 1 0
2124 4 5 5.9999999999999998e-02 4.1583345377281420e+00 1.2292059040881513e+01 1.4817281705678218e+02 0 0 0
1255 3 8 -3.3000000000000002e-01 1.2154811611843899e+00 5.8591287246990600e+00 1.4831799928189707e+02 0 1 0
710 2 3 1.9000000000000000e-01 5.7274180203621130e+00 2.5879932194226513e-01 1.4706882141240911e+02 0 1 0
994 2 5 5.9999999999999998e-02 7.0596270780896964e+00 1.4259630152774299e+00 1.4836263898674750e+02 0 1 0
1839 4 3 -1.2000000000000000e-01 3.6278396324221411e+00 1.2577174897713888e+01 1.4904409720612412e+02 0 0 0
2121 4 6 2.9999999999999999e-02 4.0782248120406965e+00 1.0000184819085934e+01 1.4881113803176575e+02 0 0 0
1256 3 3 1.9000000000000000e-01 1.0976019627651783e+00 5.9042469299694762e+00 1.4694838564912340e+02 0 1 0
1254 3 7 -4.2999999999999999e-01 3.3901602380068130e-01 7.9743819557801592e+00 1.4875496461646037e+02 0 1 0
1253 3 1 3.7500000000000000e-01 6.6043738426154353e-01 6.7902080759069268e+00 1.4916906480442435e+02 0 1 0
1840 4 3 1.9000000000000000e-01 2.0846696890697594e+00 1.2832563334144696e+01 1.4876145894020456e+02 0 0 0
2140 4 4 1.1500000000000000e-01 9.0970194236684676e-01 2.2782443352221513e+00 1.3543745249790717e+02 0 0 0
1861 4 2 -1.1500000000000000e-01 2.6056812387919670e-01 3.1064256418657599e+00 1.3522861160971291e+02 0 0 0
1543 3 6 2.9999999999999999e-02 1.4297033779173915e+00 6.8919474992388361e+00 1.4670604300302989e+02 0 1 0
1835 4 7 -4.2999999999999999e-01 3.7816330501742539e+00 7.5867229780075522e+00 1.4962687213697913e+02 0 1 0
2131 4 4 1.1500000000000000e-01 2.0134607083072225e+00 1.0767017342395146e+01 1.4572419750367087e+02 0 0 0
1849 4 2 -1.1500000000000000e-01 9.8433607861062233e-01 1.0540146781189817e+01 1.4544237838288385e+02 0 0 0
1016 2 5 5.9999999999999998e-02 4.4200701546223409e-01 1.3779651147557095e+00 1.2616943097180429e+02 0 1 0
1841 4 8 -3.3000000000000002e-01 1.6290890616524789e+00 1.1914637283317155e+01 1.4779062997522553e+02 0 0 0
1842 4 1 3.7500000000000000e-01 3.3261415801174737e-01 1.1974180001377494e+01 1.4749884736058098e+02 0 0 0
740 2 3 -1.2000000000000000e-01 6.9480379034838935e-01 1.9705707529148828e+00 1.2523379721434338e+02 0 1 0
1264 3 2 -1.1500000000000000e-01 6.3953323858829425e-01 1.2202112030450038e-01 1.4301514718120637e+02 0 1 0
1860 4 2 1.3500000000000001e-01 3.6805264960581570e-02 4.1057461252364487e+00 1.3614712518714973e+02 0 0 0
2141 4 4 1.1500000000000000e-01 1.0573307922783215e-02 2.4530483195832757e+00 1.3320425331098727e+02 0 0 0
1504 3 4 1.1500000000000000e-01 7.6484580722581361e+00 1.4967042667205581e+01 1.7444473772155874e+02 1 1 0
1829 4 2 -1.1500000000000000e-01 5.3775492250273187e+00 5.3780915366526028e+00 1.5289485325172038e+02 0 1 0
1830 4 2 -1.1500000000000000e-01 5.2158643157260727e+00 6.1655354393869404e+00 1.5171659115375701e+02 0 1 0
1828 4 2 1.3500000000000001e-01 5.0158208408923510e+00 5.8221700665413225e+00 1.5427621882815745e+02 0 1 0
706 2 8 -3.3000000000000002e-01 5.6974361676096974e+00 7.6791617192021999e-01 1.5198855898961440e+02 0 1 0
1246 3 7 -4.2999999999999999e-01 7.5390524802556380e-01 4.2585667042619182e+00 1.5510592374906642e+02 0 1 0
1826 4 1 3.7500000000000000e-01 5.4073783701166134e+00 4.9672469696487882e+00 1.5547125117854065e+02 0 1 0
1827 4 7 -4.2999999999999999e-01 6.3781101003617398e+00 4.2597661416460308e+00 1.5544869620715195e+02 0 1 0
1542 3 4 1.1500000000000000e-01 8.8393532790909746e-01 7.8342291299395370e+00 1.5375497749381515e+02 0 1 0
1252 3 2 -1.1500000000000000e-01 1.0045802825335304e+00 7.1758559600294438e+00 1.5292208719484907e+02 0 1 0
1538 3 6 2.9999999999999999e-02 1.8206497145751972e+00 5.6981577589815346e+00 1.5748065664352316e+02 0 1 0
63 1 3 -1.2000000000000000e-01 1.0295163605773688e+01 1.7231756607348608e+01 1.7504660934403671e+02 0 1 0
2117 4 4 1.1500000000000000e-01 5.3963990867891258e+00 5.6992524307023160e+00 1.5072487711645073e+02 0 1 0
2116 4 4 1.1500000000000000e-01 5.8620096396271819e+00 4.4381703980884053e+00 1.5287600320477264e+02 0 1 0
704 2 1 3.7500000000000000e-01 6.6323217283034177e+00 5.8540472186369474e-01 1.5296449612052686e+02 0 1 0
1250 3 2 1.3500000000000001e-01 8.5244112866652588e-01 6.4699569176067362e+00 1.5061157015698905e+02 0 1 0
1502 3 6 2.9999999999999999e-02 1.0851001093462758e+01 8.5401740369774526e+00 1.7479193705550824e+02 1 1 0
1251 3 2 -1.1500000000000000e-01 9.1639979177025777e-01 7.4654963608323017e+00 1.5158867908930148e+02 0 1 0
1831 4 2 1.3500000000000001e-01 4.4633955427165350e+00 7.3665721404957250e+00 1.5195801105320388e+02 0 1 0
1833 4 2 -1.1500000000000000e-01 4.4244619514649974e+00 7.1252999458979458e+00 1.5434986000617590e+02 0 0 0
1248 3 2 -1.1500000000000000e-01 1.0842985209259695e+00 4.7848172900330255e+00 1.5228514851761167e+02 0 1 0
1832 4 2 -1.1500000000000000e-01 4.0672789286825042e+00 7.8373698298504317e+00 1.5319016905002073e+02 0 0 0
2119 4 4 1.1500000000000000e-01 4.1743196898526271e+00 7.7129097043578261e+00 1.5520296587783625e+02 0 0 0
2123 4 5 5.9999999999999998e-02 3.4859386097253928e+00 1.2108647541280831e+01 1.5117236370347476e+02 0 0 0
2118 4 4 1.1500000000000000e-01 3.5234531040316144e+00 8.7625218246011052e+00 1.5333924950055990e+02 0 0 0
1834 4 1 3.7500000000000000e-01 4.0854714026936323e+00 8.1417808554401603e+00 1.5067360545444967e+02 0 1 0
1535 3 5 5.9999999999999998e-02 2.4001304595967374e+00 8.0049702116683896e+00 1.5724727992757153e+02 0 1 0
1836 4 8 -3.3000000000000002e-01 4.1710949017760957e+00 9.4088966541665986e+00 1.5089738252438858e+02 0 0 0
981 2 5 5.9999999999999998e-02 2.7549029250430177e+00 1.4985848649444933e+00 1.5971743850391732e+02 0 1 0
978 2 6 2.9999999999999999e-02 8.8662389138523090e-01 2.7405975053087031e+00 1.5923241938906409e+02 0 1 0